{
  "subject": "Science",
  "items": [
    { "id": "sci-16", "prompt": "What is the chemical symbol for water?", "type": "mcq", "options": ["H2", "H2O", "O2", "HO2"], "answer": "H2O", "prev": null, "next": "sci-17", "level": 1 },
    { "id": "sci-17", "prompt": "Which planet is known as the Red Planet?", "type": "mcq", "options": ["Venus", "Mars", "Jupiter", "Mercury"], "answer": "Mars", "prev": "sci-16", "next": "sci-18", "level": 2 },
    { "id": "sci-18", "prompt": "What is the process by which plants make their food?", "type": "short", "answer": "Photosynthesis", "prev": "sci-17", "next": "sci-19", "level": 3 },
    { "id": "sci-19", "prompt": "What is the unit of force in the SI system?", "type": "mcq", "options": ["Joule", "Pascal", "Watt", "Newton"], "answer": "Newton", "prev": "sci-18", "next": "sci-20", "level": 4 },
    { "id": "sci-20", "prompt": "Name the three states of matter.", "type": "short", "answer": "Solid, liquid, gas", "prev": "sci-19", "next": "sci-21", "level": 5 },
    { "id": "sci-21", "prompt": "What organ in the human body pumps blood?", "type": "mcq", "options": ["Lungs", "Heart", "Liver", "Kidneys"], "answer": "Heart", "prev": "sci-20", "next": "sci-22", "level": 6 },
    { "id": "sci-22", "prompt": "What is the atomic number of carbon?", "type": "numeric", "answer": "6", "prev": "sci-21", "next": "sci-23", "level": 7 },
    { "id": "sci-23", "prompt": "What causes the seasons on Earth?", "type": "short", "answer": "The tilt of Earth's axis as it orbits the Sun", "prev": "sci-22", "next": "sci-24", "level": 8 },
    { "id": "sci-24", "prompt": "What is the speed of light in a vacuum (approximately)?", "type": "numeric", "answer": "3e8", "prev": "sci-23", "next": "sci-25", "level": 9 },
    { "id": "sci-25", "prompt": "Which gas do humans primarily exhale?", "type": "mcq", "options": ["Oxygen", "Hydrogen", "Carbon dioxide", "Nitrogen"], "answer": "Carbon dioxide", "prev": "sci-24", "next": "sci-26", "level": 10 },
    { "id": "sci-26", "prompt": "What is the boiling point of water in Celsius?", "type": "numeric", "answer": "100", "prev": "sci-25", "next": "sci-27", "level": 11 },
    { "id": "sci-27", "prompt": "Name the largest bone in the human body.", "type": "short", "answer": "Femur", "prev": "sci-26", "next": "sci-28", "level": 12 },
    { "id": "sci-28", "prompt": "What is the formula for kinetic energy?", "type": "short", "answer": "(1/2)mv^2", "prev": "sci-27", "next": "sci-29", "level": 13 },
    { "id": "sci-29", "prompt": "Which element has the symbol Na?", "type": "mcq", "options": ["Neon", "Sodium", "Nitrogen", "Nickel"], "answer": "Sodium", "prev": "sci-28", "next": "sci-30", "level": 14 },
    { "id": "sci-30", "prompt": "What type of energy is stored in a battery?", "type": "short", "answer": "Chemical energy", "prev": "sci-29", "next": null, "level": 15 }
  ]
}
